# Created by CSS Data Browser Version 4.2.3.201804032035
# 
# Start Time : 2019-07-23 09:17:01.893 -0400
# End Time   : 2019-07-23 09:20:54.893 -0400
# Source     : Plot
# Format     : Decimal (6 digits)
# 
# Data is in TAB-delimited columns, should import into e.g. Excel

# Channel: ACS_DIAG:BSM_D2500:WIRE_RES_1HZ
# Archives:
# 
# Channel: ACS_DIAG:BSM_D2500:WIRE_RES
# Archives:
# 
# Channel: ACS_DIAG:BSM_D2500:WIRE_MA_1HZ
# Archives:
# 
# Channel: ACS_DIAG:BSM_D2500:WIRE_RES
# Name   : ACS_DIAG:BSM_D2500:WIRE_MA
# Archives:
# 
# Channel: ACS_DIAG:BSM_D2500:WIRE_V_1HZ
# Archives:
# 
# Channel: ACS_DIAG:BSM_D2500:WIRE_V
# Archives:
# 

# Time	ACS_DIAG:BSM_D2500:WIRE_RES_1HZ Value	Negative Error	Positive Error	Severity	Status	ACS_DIAG:BSM_D2500:WIRE_RES Value	Negative Error	Positive Error	Severity	Status	ACS_DIAG:BSM_D2500:WIRE_MA_1HZ Value	Negative Error	Positive Error	Severity	Status	ACS_DIAG:BSM_D2500:WIRE_RES Value	Negative Error	Positive Error	Severity	Status	ACS_DIAG:BSM_D2500:WIRE_V_1HZ Value	Negative Error	Positive Error	Severity	Status	ACS_DIAG:BSM_D2500:WIRE_V Value	Negative Error	Positive Error	Severity	Status
2019-07-23 09:17:01.099160559	#N/A	#N/A	#N/A	#N/A	#N/A	#N/A	#N/A	#N/A	#N/A	#N/A	#N/A	#N/A	#N/A	#N/A	#N/A	#N/A	#N/A	#N/A	#N/A	#N/A	#N/A	#N/A	#N/A	#N/A	#N/A	1.121180	0	0	NONE	NO_ALARM
2019-07-23 09:17:01.099321254	#N/A	#N/A	#N/A	#N/A	#N/A	1.579205	0	0	NONE	NO_ALARM	#N/A	#N/A	#N/A	#N/A	#N/A	1.579205	0	0	NONE	NO_ALARM	#N/A	#N/A	#N/A	#N/A	#N/A	1.121180	0	0	NONE	NO_ALARM
2019-07-23 09:17:01.700887677	#N/A	#N/A	#N/A	#N/A	#N/A	1.579205	0	0	NONE	NO_ALARM	719.666861	0	0	NONE	NO_ALARM	1.579205	0	0	NONE	NO_ALARM	#N/A	#N/A	#N/A	#N/A	#N/A	1.121180	0	0	NONE	NO_ALARM
2019-07-23 09:17:01.701124970	#N/A	#N/A	#N/A	#N/A	#N/A	1.579205	0	0	NONE	NO_ALARM	719.666861	0	0	NONE	NO_ALARM	1.579205	0	0	NONE	NO_ALARM	1.221959	0	0	NONE	NO_ALARM	1.121180	0	0	NONE	NO_ALARM
2019-07-23 09:17:01.701219867	1.697951	0	0	NONE	NO_ALARM	1.579205	0	0	NONE	NO_ALARM	719.666861	0	0	NONE	NO_ALARM	1.579205	0	0	NONE	NO_ALARM	1.221959	0	0	NONE	NO_ALARM	1.121180	0	0	NONE	NO_ALARM
2019-07-23 09:17:02.001934958	1.697951	0	0	NONE	NO_ALARM	1.579205	0	0	NONE	NO_ALARM	690.054189	0	0	NONE	NO_ALARM	1.579205	0	0	NONE	NO_ALARM	1.221959	0	0	NONE	NO_ALARM	1.121180	0	0	NONE	NO_ALARM
2019-07-23 09:17:02.002340207	1.770816	0	0	NONE	NO_ALARM	1.579205	0	0	NONE	NO_ALARM	690.054189	0	0	NONE	NO_ALARM	1.579205	0	0	NONE	NO_ALARM	1.221959	0	0	NONE	NO_ALARM	1.121180	0	0	NONE	NO_ALARM
2019-07-23 09:17:02.002357225	1.770816	0	0	NONE	NO_ALARM	1.579205	0	0	NONE	NO_ALARM	690.054189	0	0	NONE	NO_ALARM	1.579205	0	0	NONE	NO_ALARM	1.156433	0	0	NONE	NO_ALARM	1.121180	0	0	NONE	NO_ALARM
2019-07-23 09:17:02.002487084	1.675858	0	0	NONE	NO_ALARM	1.579205	0	0	NONE	NO_ALARM	690.054189	0	0	NONE	NO_ALARM	1.579205	0	0	NONE	NO_ALARM	1.156433	0	0	NONE	NO_ALARM	1.121180	0	0	NONE	NO_ALARM
2019-07-23 09:17:02.002595019	1.675858	0	0	NONE	NO_ALARM	1.581197	0	0	NONE	NO_ALARM	690.054189	0	0	NONE	NO_ALARM	1.581197	0	0	NONE	NO_ALARM	1.156433	0	0	NONE	NO_ALARM	1.121180	0	0	NONE	NO_ALARM
2019-07-23 09:17:02.303194657	1.675858	0	0	NONE	NO_ALARM	1.581197	0	0	NONE	NO_ALARM	399.259589	0	0	NONE	NO_ALARM	1.581197	0	0	NONE	NO_ALARM	1.156433	0	0	NONE	NO_ALARM	1.121180	0	0	NONE	NO_ALARM
2019-07-23 09:17:02.303402454	2.896444	0	0	NONE	NO_ALARM	1.581197	0	0	NONE	NO_ALARM	399.259589	0	0	NONE	NO_ALARM	1.581197	0	0	NONE	NO_ALARM	1.156433	0	0	NONE	NO_ALARM	1.121180	0	0	NONE	NO_ALARM
2019-07-23 09:17:02.303421923	2.896444	0	0	NONE	NO_ALARM	1.581197	0	0	NONE	NO_ALARM	399.259589	0	0	NONE	NO_ALARM	1.581197	0	0	NONE	NO_ALARM	1.255176	0	0	NONE	NO_ALARM	1.121180	0	0	NONE	NO_ALARM
2019-07-23 09:17:02.303470482	3.143759	0	0	NONE	NO_ALARM	1.581197	0	0	NONE	NO_ALARM	399.259589	0	0	NONE	NO_ALARM	1.581197	0	0	NONE	NO_ALARM	1.255176	0	0	NONE	NO_ALARM	1.121180	0	0	NONE	NO_ALARM
2019-07-23 09:17:02.604487669	3.143759	0	0	NONE	NO_ALARM	1.581197	0	0	NONE	NO_ALARM	354.770709	0	0	NONE	NO_ALARM	1.581197	0	0	NONE	NO_ALARM	1.255176	0	0	NONE	NO_ALARM	1.121180	0	0	NONE	NO_ALARM
2019-07-23 09:17:02.604503383	3.143759	0	0	NONE	NO_ALARM	1.581197	0	0	NONE	NO_ALARM	354.770709	0	0	NONE	NO_ALARM	1.581197	0	0	NONE	NO_ALARM	1.095771	0	0	NONE	NO_ALARM	1.121180	0	0	NONE	NO_ALARM
2019-07-23 09:17:02.604539814	3.088673	0	0	NONE	NO_ALARM	1.581197	0	0	NONE	NO_ALARM	354.770709	0	0	NONE	NO_ALARM	1.581197	0	0	NONE	NO_ALARM	1.095771	0	0	NONE	NO_ALARM	1.121180	0	0	NONE	NO_ALARM
2019-07-23 09:17:02.604575803	3.088673	0	0	NONE	NO_ALARM	1.581197	0	0	NONE	NO_ALARM	354.770709	0	0	NONE	NO_ALARM	1.581197	0	0	NONE	NO_ALARM	1.095771	0	0	NONE	NO_ALARM	1.135652	0	0	NONE	NO_ALARM
2019-07-23 09:17:02.905205151	3.088673	0	0	NONE	NO_ALARM	1.581197	0	0	NONE	NO_ALARM	374.874047	0	0	NONE	NO_ALARM	1.581197	0	0	NONE	NO_ALARM	1.095771	0	0	NONE	NO_ALARM	1.135652	0	0	NONE	NO_ALARM
2019-07-23 09:17:02.905406690	2.923037	0	0	NONE	NO_ALARM	1.581197	0	0	NONE	NO_ALARM	374.874047	0	0	NONE	NO_ALARM	1.581197	0	0	NONE	NO_ALARM	1.095771	0	0	NONE	NO_ALARM	1.135652	0	0	NONE	NO_ALARM
2019-07-23 09:17:02.905421156	2.923037	0	0	NONE	NO_ALARM	1.581197	0	0	NONE	NO_ALARM	374.874047	0	0	NONE	NO_ALARM	1.581197	0	0	NONE	NO_ALARM	1.125191	0	0	NONE	NO_ALARM	1.135652	0	0	NONE	NO_ALARM
2019-07-23 09:17:02.905526666	3.001517	0	0	NONE	NO_ALARM	1.581197	0	0	NONE	NO_ALARM	374.874047	0	0	NONE	NO_ALARM	1.581197	0	0	NONE	NO_ALARM	1.125191	0	0	NONE	NO_ALARM	1.135652	0	0	NONE	NO_ALARM
2019-07-23 09:17:02.905598203	3.001517	0	0	NONE	NO_ALARM	1.796516	0	0	NONE	NO_ALARM	374.874047	0	0	NONE	NO_ALARM	1.796516	0	0	NONE	NO_ALARM	1.125191	0	0	NONE	NO_ALARM	1.135652	0	0	NONE	NO_ALARM
2019-07-23 09:17:03.206111018	3.001517	0	0	NONE	NO_ALARM	1.796516	0	0	NONE	NO_ALARM	407.322654	0	0	NONE	NO_ALARM	1.796516	0	0	NONE	NO_ALARM	1.125191	0	0	NONE	NO_ALARM	1.135652	0	0	NONE	NO_ALARM
2019-07-23 09:17:03.206127461	3.001517	0	0	NONE	NO_ALARM	1.796516	0	0	NONE	NO_ALARM	407.322654	0	0	NONE	NO_ALARM	1.796516	0	0	NONE	NO_ALARM	1.254641	0	0	NONE	NO_ALARM	1.135652	0	0	NONE	NO_ALARM
2019-07-23 09:17:03.206549822	3.080214	0	0	NONE	NO_ALARM	1.796516	0	0	NONE	NO_ALARM	407.322654	0	0	NONE	NO_ALARM	1.796516	0	0	NONE	NO_ALARM	1.254641	0	0	NONE	NO_ALARM	1.135652	0	0	NONE	NO_ALARM
2019-07-23 09:17:03.506794137	3.080214	0	0	NONE	NO_ALARM	1.796516	0	0	NONE	NO_ALARM	503.102865	0	0	NONE	NO_ALARM	1.796516	0	0	NONE	NO_ALARM	1.254641	0	0	NONE	NO_ALARM	1.135652	0	0	NONE	NO_ALARM
2019-07-23 09:17:03.507208073	2.493806	0	0	NONE	NO_ALARM	1.796516	0	0	NONE	NO_ALARM	503.102865	0	0	NONE	NO_ALARM	1.796516	0	0	NONE	NO_ALARM	1.254641	0	0	NONE	NO_ALARM	1.135652	0	0	NONE	NO_ALARM
2019-07-23 09:17:03.507218121	2.493806	0	0	NONE	NO_ALARM	1.796516	0	0	NONE	NO_ALARM	503.102865	0	0	NONE	NO_ALARM	1.796516	0	0	NONE	NO_ALARM	1.233993	0	0	NONE	NO_ALARM	1.135652	0	0	NONE	NO_ALARM
2019-07-23 09:17:03.507291657	2.452765	0	0	NONE	NO_ALARM	1.796516	0	0	NONE	NO_ALARM	503.102865	0	0	NONE	NO_ALARM	1.796516	0	0	NONE	NO_ALARM	1.233993	0	0	NONE	NO_ALARM	1.135652	0	0	NONE	NO_ALARM
2019-07-23 09:17:03.807718201	2.452765	0	0	NONE	NO_ALARM	1.796516	0	0	NONE	NO_ALARM	433.073399	0	0	NONE	NO_ALARM	1.796516	0	0	NONE	NO_ALARM	1.233993	0	0	NONE	NO_ALARM	1.135652	0	0	NONE	NO_ALARM
2019-07-23 09:17:03.807731315	2.452765	0	0	NONE	NO_ALARM	1.796516	0	0	NONE	NO_ALARM	433.073399	0	0	NONE	NO_ALARM	1.796516	0	0	NONE	NO_ALARM	1.246329	0	0	NONE	NO_ALARM	1.135652	0	0	NONE	NO_ALARM
2019-07-23 09:17:03.807814839	2.877869	0	0	NONE	NO_ALARM	1.796516	0	0	NONE	NO_ALARM	433.073399	0	0	NONE	NO_ALARM	1.796516	0	0	NONE	NO_ALARM	1.246329	0	0	NONE	NO_ALARM	1.135652	0	0	NONE	NO_ALARM
2019-07-23 09:17:03.808145511	2.877869	0	0	NONE	NO_ALARM	1.965450	0	0	NONE	NO_ALARM	433.073399	0	0	NONE	NO_ALARM	1.965450	0	0	NONE	NO_ALARM	1.246329	0	0	NONE	NO_ALARM	1.135652	0	0	NONE	NO_ALARM
2019-07-23 09:17:04.108497107	2.877869	0	0	NONE	NO_ALARM	1.965450	0	0	NONE	NO_ALARM	369.206704	0	0	NONE	NO_ALARM	1.965450	0	0	NONE	NO_ALARM	1.246329	0	0	NONE	NO_ALARM	1.135652	0	0	NONE	NO_ALARM
2019-07-23 09:17:04.108548475	3.375693	0	0	NONE	NO_ALARM	1.965450	0	0	NONE	NO_ALARM	369.206704	0	0	NONE	NO_ALARM	1.965450	0	0	NONE	NO_ALARM	1.246329	0	0	NONE	NO_ALARM	1.135652	0	0	NONE	NO_ALARM
2019-07-23 09:17:04.108579004	3.375693	0	0	NONE	NO_ALARM	1.965450	0	0	NONE	NO_ALARM	369.206704	0	0	NONE	NO_ALARM	1.965450	0	0	NONE	NO_ALARM	1.249806	0	0	NONE	NO_ALARM	1.135652	0	0	NONE	NO_ALARM
2019-07-23 09:17:04.108675513	3.385112	0	0	NONE	NO_ALARM	1.965450	0	0	NONE	NO_ALARM	369.206704	0	0	NONE	NO_ALARM	1.965450	0	0	NONE	NO_ALARM	1.249806	0	0	NONE	NO_ALARM	1.135652	0	0	NONE	NO_ALARM
2019-07-23 09:17:04.108881463	3.385112	0	0	NONE	NO_ALARM	1.965450	0	0	NONE	NO_ALARM	369.206704	0	0	NONE	NO_ALARM	1.965450	0	0	NONE	NO_ALARM	1.249806	0	0	NONE	NO_ALARM	1.145334	0	0	NONE	NO_ALARM
2019-07-23 09:17:04.409856152	3.385112	0	0	NONE	NO_ALARM	1.965450	0	0	NONE	NO_ALARM	520.510840	0	0	NONE	NO_ALARM	1.965450	0	0	NONE	NO_ALARM	1.249806	0	0	NONE	NO_ALARM	1.145334	0	0	NONE	NO_ALARM
2019-07-23 09:17:04.409866134	3.385112	0	0	NONE	NO_ALARM	1.965450	0	0	NONE	NO_ALARM	520.510840	0	0	NONE	NO_ALARM	1.965450	0	0	NONE	NO_ALARM	1.077161	0	0	NONE	NO_ALARM	1.145334	0	0	NONE	NO_ALARM
2019-07-23 09:17:04.409930844	2.069431	0	0	NONE	NO_ALARM	1.965450	0	0	NONE	NO_ALARM	520.510840	0	0	NONE	NO_ALARM	1.965450	0	0	NONE	NO_ALARM	1.077161	0	0	NONE	NO_ALARM	1.145334	0	0	NONE	NO_ALARM
2019-07-23 09:17:04.710444295	2.069431	0	0	NONE	NO_ALARM	1.965450	0	0	NONE	NO_ALARM	396.832146	0	0	NONE	NO_ALARM	1.965450	0	0	NONE	NO_ALARM	1.077161	0	0	NONE	NO_ALARM	1.145334	0	0	NONE	NO_ALARM
2019-07-23 09:17:04.710468159	2.714400	0	0	NONE	NO_ALARM	1.965450	0	0	NONE	NO_ALARM	396.832146	0	0	NONE	NO_ALARM	1.965450	0	0	NONE	NO_ALARM	1.077161	0	0	NONE	NO_ALARM	1.145334	0	0	NONE	NO_ALARM
2019-07-23 09:17:04.710737119	2.714400	0	0	NONE	NO_ALARM	1.965450	0	0	NONE	NO_ALARM	396.832146	0	0	NONE	NO_ALARM	1.965450	0	0	NONE	NO_ALARM	1.588865	0	0	NONE	NO_ALARM	1.145334	0	0	NONE	NO_ALARM
2019-07-23 09:17:04.710798577	4.003873	0	0	NONE	NO_ALARM	1.965450	0	0	NONE	NO_ALARM	396.832146	0	0	NONE	NO_ALARM	1.965450	0	0	NONE	NO_ALARM	1.588865	0	0	NONE	NO_ALARM	1.145334	0	0	NONE	NO_ALARM
2019-07-23 09:17:04.710922803	4.003873	0	0	NONE	NO_ALARM	2.217422	0	0	NONE	NO_ALARM	396.832146	0	0	NONE	NO_ALARM	2.217422	0	0	NONE	NO_ALARM	1.588865	0	0	NONE	NO_ALARM	1.145334	0	0	NONE	NO_ALARM
2019-07-23 09:17:05.011566477	4.003873	0	0	NONE	NO_ALARM	2.217422	0	0	NONE	NO_ALARM	476.888118	0	0	NONE	NO_ALARM	2.217422	0	0	NONE	NO_ALARM	1.588865	0	0	NONE	NO_ALARM	1.145334	0	0	NONE	NO_ALARM
2019-07-23 09:17:05.011689067	3.331736	0	0	NONE	NO_ALARM	2.217422	0	0	NONE	NO_ALARM	476.888118	0	0	NONE	NO_ALARM	2.217422	0	0	NONE	NO_ALARM	1.588865	0	0	NONE	NO_ALARM	1.145334	0	0	NONE	NO_ALARM
2019-07-23 09:17:05.011781988	3.331736	0	0	NONE	NO_ALARM	2.217422	0	0	NONE	NO_ALARM	476.888118	0	0	NONE	NO_ALARM	2.217422	0	0	NONE	NO_ALARM	1.152428	0	0	NONE	NO_ALARM	1.145334	0	0	NONE	NO_ALARM
2019-07-23 09:17:05.011812203	2.416558	0	0	NONE	NO_ALARM	2.217422	0	0	NONE	NO_ALARM	476.888118	0	0	NONE	NO_ALARM	2.217422	0	0	NONE	NO_ALARM	1.152428	0	0	NONE	NO_ALARM	1.145334	0	0	NONE	NO_ALARM
2019-07-23 09:17:05.312637645	2.416558	0	0	NONE	NO_ALARM	2.217422	0	0	NONE	NO_ALARM	437.084013	0	0	NONE	NO_ALARM	2.217422	0	0	NONE	NO_ALARM	1.152428	0	0	NONE	NO_ALARM	1.145334	0	0	NONE	NO_ALARM
2019-07-23 09:17:05.312727226	2.636628	0	0	NONE	NO_ALARM	2.217422	0	0	NONE	NO_ALARM	437.084013	0	0	NONE	NO_ALARM	2.217422	0	0	NONE	NO_ALARM	1.152428	0	0	NONE	NO_ALARM	1.145334	0	0	NONE	NO_ALARM
2019-07-23 09:17:05.312931351	2.636628	0	0	NONE	NO_ALARM	2.217422	0	0	NONE	NO_ALARM	437.084013	0	0	NONE	NO_ALARM	2.217422	0	0	NONE	NO_ALARM	0.991484	0	0	NONE	NO_ALARM	1.145334	0	0	NONE	NO_ALARM
2019-07-23 09:17:05.312944911	2.268406	0	0	NONE	NO_ALARM	2.217422	0	0	NONE	NO_ALARM	437.084013	0	0	NONE	NO_ALARM	2.217422	0	0	NONE	NO_ALARM	0.991484	0	0	NONE	NO_ALARM	1.145334	0	0	NONE	NO_ALARM
2019-07-23 09:17:05.613580519	2.268406	0	0	NONE	NO_ALARM	2.217422	0	0	NONE	NO_ALARM	456.388307	0	0	NONE	NO_ALARM	2.217422	0	0	NONE	NO_ALARM	0.991484	0	0	NONE	NO_ALARM	1.145334	0	0	NONE	NO_ALARM
2019-07-23 09:17:05.613742520	2.172457	0	0	NONE	NO_ALARM	2.217422	0	0	NONE	NO_ALARM	456.388307	0	0	NONE	NO_ALARM	2.217422	0	0	NONE	NO_ALARM	0.991484	0	0	NONE	NO_ALARM	1.145334	0	0	NONE	NO_ALARM
2019-07-23 09:17:05.613747297	2.172457	0	0	NONE	NO_ALARM	2.217422	0	0	NONE	NO_ALARM	456.388307	0	0	NONE	NO_ALARM	2.217422	0	0	NONE	NO_ALARM	0.932087	0	0	NONE	NO_ALARM	1.145334	0	0	NONE	NO_ALARM
2019-07-23 09:17:05.613770822	2.042310	0	0	NONE	NO_ALARM	2.217422	0	0	NONE	NO_ALARM	456.388307	0	0	NONE	NO_ALARM	2.217422	0	0	NONE	NO_ALARM	0.932087	0	0	NONE	NO_ALARM	1.145334	0	0	NONE	NO_ALARM
2019-07-23 09:17:05.613783398	2.042310	0	0	NONE	NO_ALARM	2.410938	0	0	NONE	NO_ALARM	456.388307	0	0	NONE	NO_ALARM	2.410938	0	0	NONE	NO_ALARM	0.932087	0	0	NONE	NO_ALARM	1.145334	0	0	NONE	NO_ALARM
2019-07-23 09:17:05.613786538	2.042310	0	0	NONE	NO_ALARM	2.410938	0	0	NONE	NO_ALARM	456.388307	0	0	NONE	NO_ALARM	2.410938	0	0	NONE	NO_ALARM	0.932087	0	0	NONE	NO_ALARM	1.151677	0	0	NONE	NO_ALARM
2019-07-23 09:17:05.914349598	2.042310	0	0	NONE	NO_ALARM	2.410938	0	0	NONE	NO_ALARM	530.311562	0	0	NONE	NO_ALARM	2.410938	0	0	NONE	NO_ALARM	0.932087	0	0	NONE	NO_ALARM	1.151677	0	0	NONE	NO_ALARM
2019-07-23 09:17:05.914507708	1.757621	0	0	NONE	NO_ALARM	2.410938	0	0	NONE	NO_ALARM	530.311562	0	0	NONE	NO_ALARM	2.410938	0	0	NONE	NO_ALARM	0.932087	0	0	NONE	NO_ALARM	1.151677	0	0	NONE	NO_ALARM
2019-07-23 09:17:05.914515121	1.757621	0	0	NONE	NO_ALARM	2.410938	0	0	NONE	NO_ALARM	530.311562	0	0	NONE	NO_ALARM	2.410938	0	0	NONE	NO_ALARM	1.176933	0	0	NONE	NO_ALARM	1.151677	0	0	NONE	NO_ALARM
2019-07-23 09:17:05.914556826	2.219324	0	0	NONE	NO_ALARM	2.410938	0	0	NONE	NO_ALARM	530.311562	0	0	NONE	NO_ALARM	2.410938	0	0	NONE	NO_ALARM	1.176933	0	0	NONE	NO_ALARM	1.151677	0	0	NONE	NO_ALARM
2019-07-23 09:17:06.215477448	2.219324	0	0	NONE	NO_ALARM	2.410938	0	0	NONE	NO_ALARM	554.503658	0	0	NONE	NO_ALARM	2.410938	0	0	NONE	NO_ALARM	1.176933	0	0	NONE	NO_ALARM	1.151677	0	0	NONE	NO_ALARM
2019-07-23 09:17:06.215485713	2.219324	0	0	NONE	NO_ALARM	2.410938	0	0	NONE	NO_ALARM	554.503658	0	0	NONE	NO_ALARM	2.410938	0	0	NONE	NO_ALARM	1.319944	0	0	NONE	NO_ALARM	1.151677	0	0	NONE	NO_ALARM
2019-07-23 09:17:06.215528997	2.380406	0	0	NONE	NO_ALARM	2.410938	0	0	NONE	NO_ALARM	554.503658	0	0	NONE	NO_ALARM	2.410938	0	0	NONE	NO_ALARM	1.319944	0	0	NONE	NO_ALARM	1.151677	0	0	NONE	NO_ALARM
2019-07-23 09:17:06.516322114	2.380406	0	0	NONE	NO_ALARM	2.410938	0	0	NONE	NO_ALARM	575.113990	0	0	NONE	NO_ALARM	2.410938	0	0	NONE	NO_ALARM	1.319944	0	0	NONE	NO_ALARM	1.151677	0	0	NONE	NO_ALARM
2019-07-23 09:17:06.516469579	2.295099	0	0	NONE	NO_ALARM	2.410938	0	0	NONE	NO_ALARM	575.113990	0	0	NONE	NO_ALARM	2.410938	0	0	NONE	NO_ALARM	1.319944	0	0	NONE	NO_ALARM	1.151677	0	0	NONE	NO_ALARM
2019-07-23 09:17:06.516502830	2.295099	0	0	NONE	NO_ALARM	2.491494	0	0	NONE	NO_ALARM	575.113990	0	0	NONE	NO_ALARM	2.491494	0	0	NONE	NO_ALARM	1.319944	0	0	NONE	NO_ALARM	1.151677	0	0	NONE	NO_ALARM
2019-07-23 09:17:06.516596536	2.295099	0	0	NONE	NO_ALARM	2.491494	0	0	NONE	NO_ALARM	575.113990	0	0	NONE	NO_ALARM	2.491494	0	0	NONE	NO_ALARM	0.885872	0	0	NONE	NO_ALARM	1.151677	0	0	NONE	NO_ALARM
2019-07-23 09:17:06.516612124	1.540341	0	0	NONE	NO_ALARM	2.491494	0	0	NONE	NO_ALARM	575.113990	0	0	NONE	NO_ALARM	2.491494	0	0	NONE	NO_ALARM	0.885872	0	0	NONE	NO_ALARM	1.151677	0	0	NONE	NO_ALARM
2019-07-23 09:17:06.816953337	1.540341	0	0	NONE	NO_ALARM	2.491494	0	0	NONE	NO_ALARM	518.972737	0	0	NONE	NO_ALARM	2.491494	0	0	NONE	NO_ALARM	0.885872	0	0	NONE	NO_ALARM	1.151677	0	0	NONE	NO_ALARM
2019-07-23 09:17:06.816993772	1.706972	0	0	NONE	NO_ALARM	2.491494	0	0	NONE	NO_ALARM	518.972737	0	0	NONE	NO_ALARM	2.491494	0	0	NONE	NO_ALARM	0.885872	0	0	NONE	NO_ALARM	1.151677	0	0	NONE	NO_ALARM
2019-07-23 09:17:06.817139536	1.706972	0	0	NONE	NO_ALARM	2.491494	0	0	NONE	NO_ALARM	518.972737	0	0	NONE	NO_ALARM	2.491494	0	0	NONE	NO_ALARM	1.109107	0	0	NONE	NO_ALARM	1.151677	0	0	NONE	NO_ALARM
2019-07-23 09:17:06.817173400	2.137120	0	0	NONE	NO_ALARM	2.491494	0	0	NONE	NO_ALARM	518.972737	0	0	NONE	NO_ALARM	2.491494	0	0	NONE	NO_ALARM	1.109107	0	0	NONE	NO_ALARM	1.151677	0	0	NONE	NO_ALARM
2019-07-23 09:17:07.117728095	2.137120	0	0	NONE	NO_ALARM	2.491494	0	0	NONE	NO_ALARM	443.045976	0	0	NONE	NO_ALARM	2.491494	0	0	NONE	NO_ALARM	1.109107	0	0	NONE	NO_ALARM	1.151677	0	0	NONE	NO_ALARM
2019-07-23 09:17:07.117865742	2.503367	0	0	NONE	NO_ALARM	2.491494	0	0	NONE	NO_ALARM	443.045976	0	0	NONE	NO_ALARM	2.491494	0	0	NONE	NO_ALARM	1.109107	0	0	NONE	NO_ALARM	1.151677	0	0	NONE	NO_ALARM
2019-07-23 09:17:07.118002971	2.503367	0	0	NONE	NO_ALARM	2.491494	0	0	NONE	NO_ALARM	443.045976	0	0	NONE	NO_ALARM	2.491494	0	0	NONE	NO_ALARM	1.176761	0	0	NONE	NO_ALARM	1.151677	0	0	NONE	NO_ALARM
2019-07-23 09:17:07.118029166	2.656071	0	0	NONE	NO_ALARM	2.491494	0	0	NONE	NO_ALARM	443.045976	0	0	NONE	NO_ALARM	2.491494	0	0	NONE	NO_ALARM	1.176761	0	0	NONE	NO_ALARM	1.151677	0	0	NONE	NO_ALARM
2019-07-23 09:17:07.118157006	2.656071	0	0	NONE	NO_ALARM	2.491494	0	0	NONE	NO_ALARM	443.045976	0	0	NONE	NO_ALARM	2.491494	0	0	NONE	NO_ALARM	1.176761	0	0	NONE	NO_ALARM	1.145633	0	0	NONE	NO_ALARM
2019-07-23 09:17:07.118178884	2.656071	0	0	NONE	NO_ALARM	2.574896	0	0	NONE	NO_ALARM	443.045976	0	0	NONE	NO_ALARM	2.574896	0	0	NONE	NO_ALARM	1.176761	0	0	NONE	NO_ALARM	1.145633	0	0	NONE	NO_ALARM
2019-07-23 09:17:07.418529434	2.656071	0	0	NONE	NO_ALARM	2.574896	0	0	NONE	NO_ALARM	371.252234	0	0	NONE	NO_ALARM	2.574896	0	0	NONE	NO_ALARM	1.176761	0	0	NONE	NO_ALARM	1.145633	0	0	NONE	NO_ALARM
2019-07-23 09:17:07.418635211	3.169709	0	0	NONE	NO_ALARM	2.574896	0	0	NONE	NO_ALARM	371.252234	0	0	NONE	NO_ALARM	2.574896	0	0	NONE	NO_ALARM	1.176761	0	0	NONE	NO_ALARM	1.145633	0	0	NONE	NO_ALARM
2019-07-23 09:17:07.418806049	3.169709	0	0	NONE	NO_ALARM	2.574896	0	0	NONE	NO_ALARM	371.252234	0	0	NONE	NO_ALARM	2.574896	0	0	NONE	NO_ALARM	1.136043	0	0	NONE	NO_ALARM	1.145633	0	0	NONE	NO_ALARM
2019-07-23 09:17:07.418822533	3.060030	0	0	NONE	NO_ALARM	2.574896	0	0	NONE	NO_ALARM	371.252234	0	0	NONE	NO_ALARM	2.574896	0	0	NONE	NO_ALARM	1.136043	0	0	NONE	NO_ALARM	1.145633	0	0	NONE	NO_ALARM
2019-07-23 09:17:07.719535091	3.060030	0	0	NONE	NO_ALARM	2.574896	0	0	NONE	NO_ALARM	512.549886	0	0	NONE	NO_ALARM	2.574896	0	0	NONE	NO_ALARM	1.136043	0	0	NONE	NO_ALARM	1.145633	0	0	NONE	NO_ALARM
2019-07-23 09:17:07.719582975	2.216453	0	0	NONE	NO_ALARM	2.574896	0	0	NONE	NO_ALARM	512.549886	0	0	NONE	NO_ALARM	2.574896	0	0	NONE	NO_ALARM	1.136043	0	0	NONE	NO_ALARM	1.145633	0	0	NONE	NO_ALARM
2019-07-23 09:17:07.719589635	2.216453	0	0	NONE	NO_ALARM	2.574896	0	0	NONE	NO_ALARM	512.549886	0	0	NONE	NO_ALARM	2.574896	0	0	NONE	NO_ALARM	0.969458	0	0	NONE	NO_ALARM	1.145633	0	0	NONE	NO_ALARM
2019-07-23 09:17:07.719601766	1.891442	0	0	NONE	NO_ALARM	2.574896	0	0	NONE	NO_ALARM	512.549886	0	0	NONE	NO_ALARM	2.574896	0	0	NONE	NO_ALARM	0.969458	0	0	NONE	NO_ALARM	1.145633	0	0	NONE	NO_ALARM
2019-07-23 09:17:08.020539223	1.891442	0	0	NONE	NO_ALARM	2.574896	0	0	NONE	NO_ALARM	393.464733	0	0	NONE	NO_ALARM	2.574896	0	0	NONE	NO_ALARM	0.969458	0	0	NONE	NO_ALARM	1.145633	0	0	NONE	NO_ALARM
2019-07-23 09:17:08.020561328	2.463902	0	0	NONE	NO_ALARM	2.574896	0	0	NONE	NO_ALARM	393.464733	0	0	NONE	NO_ALARM	2.574896	0	0	NONE	NO_ALARM	0.969458	0	0	NONE	NO_ALARM	1.145633	0	0	NONE	NO_ALARM
2019-07-23 09:17:08.020596590	2.463902	0	0	NONE	NO_ALARM	2.544021	0	0	NONE	NO_ALARM	393.464733	0	0	NONE	NO_ALARM	2.544021	0	0	NONE	NO_ALARM	0.969458	0	0	NONE	NO_ALARM	1.145633	0	0	NONE	NO_ALARM
2019-07-23 09:17:08.020911187	2.463902	0	0	NONE	NO_ALARM	2.544021	0	0	NONE	NO_ALARM	393.464733	0	0	NONE	NO_ALARM	2.544021	0	0	NONE	NO_ALARM	1.122965	0	0	NONE	NO_ALARM	1.145633	0	0	NONE	NO_ALARM
2019-07-23 09:17:08.021017120	2.854042	0	0	NONE	NO_ALARM	2.544021	0	0	NONE	NO_ALARM	393.464733	0	0	NONE	NO_ALARM	2.544021	0	0	NONE	NO_ALARM	1.122965	0	0	NONE	NO_ALARM	1.145633	0	0	NONE	NO_ALARM
2019-07-23 09:17:08.321750719	2.854042	0	0	NONE	NO_ALARM	2.544021	0	0	NONE	NO_ALARM	450.524225	0	0	NONE	NO_ALARM	2.544021	0	0	NONE	NO_ALARM	1.122965	0	0	NONE	NO_ALARM	1.145633	0	0	NONE	NO_ALARM
2019-07-23 09:17:08.321797792	2.492574	0	0	NONE	NO_ALARM	2.544021	0	0	NONE	NO_ALARM	450.524225	0	0	NONE	NO_ALARM	2.544021	0	0	NONE	NO_ALARM	1.122965	0	0	NONE	NO_ALARM	1.145633	0	0	NONE	NO_ALARM
2019-07-23 09:17:08.322096364	2.492574	0	0	NONE	NO_ALARM	2.544021	0	0	NONE	NO_ALARM	450.524225	0	0	NONE	NO_ALARM	2.544021	0	0	NONE	NO_ALARM	0.885991	0	0	NONE	NO_ALARM	1.145633	0	0	NONE	NO_ALARM
2019-07-23 09:17:08.322113316	1.966578	0	0	NONE	NO_ALARM	2.544021	0	0	NONE	NO_ALARM	450.524225	0	0	NONE	NO_ALARM	2.544021	0	0	NONE	NO_ALARM	0.885991	0	0	NONE	NO_ALARM	1.145633	0	0	NONE	NO_ALARM
2019-07-23 09:17:08.622693720	1.966578	0	0	NONE	NO_ALARM	2.544021	0	0	NONE	NO_ALARM	512.699646	0	0	NONE	NO_ALARM	2.544021	0	0	NONE	NO_ALARM	0.885991	0	0	NONE	NO_ALARM	1.145633	0	0	NONE	NO_ALARM
2019-07-23 09:17:08.622825228	1.728090	0	0	NONE	NO_ALARM	2.544021	0	0	NONE	NO_ALARM	512.699646	0	0	NONE	NO_ALARM	2.544021	0	0	NONE	NO_ALARM	0.885991	0	0	NONE	NO_ALARM	1.145633	0	0	NONE	NO_ALARM
2019-07-23 09:17:08.622891902	1.728090	0	0	NONE	NO_ALARM	2.544021	0	0	NONE	NO_ALARM	512.699646	0	0	NONE	NO_ALARM	2.544021	0	0	NONE	NO_ALARM	0.853694	0	0	NONE	NO_ALARM	1.145633	0	0	NONE	NO_ALARM
2019-07-23 09:17:08.622957867	1.665096	0	0	NONE	NO_ALARM	2.544021	0	0	NONE	NO_ALARM	512.699646	0	0	NONE	NO_ALARM	2.544021	0	0	NONE	NO_ALARM	0.853694	0	0	NONE	NO_ALARM	1.145633	0	0	NONE	NO_ALARM
2019-07-23 09:17:08.623014934	1.665096	0	0	NONE	NO_ALARM	2.544021	0	0	NONE	NO_ALARM	512.699646	0	0	NONE	NO_ALARM	2.544021	0	0	NONE	NO_ALARM	0.853694	0	0	NONE	NO_ALARM	1.140679	0	0	NONE	NO_ALARM
2019-07-23 09:17:08.623188983	1.665096	0	0	NONE	NO_ALARM	2.437361	0	0	NONE	NO_ALARM	512.699646	0	0	NONE	NO_ALARM	2.437361	0	0	NONE	NO_ALARM	0.853694	0	0	NONE	NO_ALARM	1.140679	0	0	NONE	NO_ALARM
2019-07-23 09:17:08.923521533	1.665096	0	0	NONE	NO_ALARM	2.437361	0	0	NONE	NO_ALARM	602.519374	0	0	NONE	NO_ALARM	2.437361	0	0	NONE	NO_ALARM	0.853694	0	0	NONE	NO_ALARM	1.140679	0	0	NONE	NO_ALARM
2019-07-23 09:17:08.923569391	1.416874	0	0	NONE	NO_ALARM	2.437361	0	0	NONE	NO_ALARM	602.519374	0	0	NONE	NO_ALARM	2.437361	0	0	NONE	NO_ALARM	0.853694	0	0	NONE	NO_ALARM	1.140679	0	0	NONE	NO_ALARM
2019-07-23 09:17:08.923574472	1.416874	0	0	NONE	NO_ALARM	2.437361	0	0	NONE	NO_ALARM	602.519374	0	0	NONE	NO_ALARM	2.437361	0	0	NONE	NO_ALARM	0.778899	0	0	NONE	NO_ALARM	1.140679	0	0	NONE	NO_ALARM
2019-07-23 09:17:08.923586079	1.292736	0	0	NONE	NO_ALARM	2.437361	0	0	NONE	NO_ALARM	602.519374	0	0	NONE	NO_ALARM	2.437361	0	0	NONE	NO_ALARM	0.778899	0	0	NONE	NO_ALARM	1.140679	0	0	NONE	NO_ALARM
2019-07-23 09:17:09.224673489	1.292736	0	0	NONE	NO_ALARM	2.437361	0	0	NONE	NO_ALARM	438.055842	0	0	NONE	NO_ALARM	2.437361	0	0	NONE	NO_ALARM	0.778899	0	0	NONE	NO_ALARM	1.140679	0	0	NONE	NO_ALARM
2019-07-23 09:17:09.224734389	1.778081	0	0	NONE	NO_ALARM	2.437361	0	0	NONE	NO_ALARM	438.055842	0	0	NONE	NO_ALARM	2.437361	0	0	NONE	NO_ALARM	0.778899	0	0	NONE	NO_ALARM	1.140679	0	0	NONE	NO_ALARM
2019-07-23 09:17:09.224811068	1.778081	0	0	NONE	NO_ALARM	2.437361	0	0	NONE	NO_ALARM	438.055842	0	0	NONE	NO_ALARM	2.437361	0	0	NONE	NO_ALARM	1.126069	0	0	NONE	NO_ALARM	1.140679	0	0	NONE	NO_ALARM
2019-07-23 09:17:09.224828811	2.570605	0	0	NONE	NO_ALARM	2.437361	0	0	NONE	NO_ALARM	438.055842	0	0	NONE	NO_ALARM	2.437361	0	0	NONE	NO_ALARM	1.126069	0	0	NONE	NO_ALARM	1.140679	0	0	NONE	NO_ALARM
2019-07-23 09:17:09.525858462	2.570605	0	0	NONE	NO_ALARM	2.437361	0	0	NONE	NO_ALARM	325.744092	0	0	NONE	NO_ALARM	2.437361	0	0	NONE	NO_ALARM	1.126069	0	0	NONE	NO_ALARM	1.140679	0	0	NONE	NO_ALARM
2019-07-23 09:17:09.525885734	3.456912	0	0	NONE	NO_ALARM	2.437361	0	0	NONE	NO_ALARM	325.744092	0	0	NONE	NO_ALARM	2.437361	0	0	NONE	NO_ALARM	1.126069	0	0	NONE	NO_ALARM	1.140679	0	0	NONE	NO_ALARM
2019-07-23 09:17:09.526046934	3.456912	0	0	NONE	NO_ALARM	2.437361	0	0	NONE	NO_ALARM	325.744092	0	0	NONE	NO_ALARM	2.437361	0	0	NONE	NO_ALARM	1.099350	0	0	NONE	NO_ALARM	1.140679	0	0	NONE	NO_ALARM
2019-07-23 09:17:09.526104916	3.456912	0	0	NONE	NO_ALARM	2.269585	0	0	NONE	NO_ALARM	325.744092	0	0	NONE	NO_ALARM	2.269585	0	0	NONE	NO_ALARM	1.099350	0	0	NONE	NO_ALARM	1.140679	0	0	NONE	NO_ALARM
2019-07-23 09:17:09.526113460	3.374888	0	0	NONE	NO_ALARM	2.269585	0	0	NONE	NO_ALARM	325.744092	0	0	NONE	NO_ALARM	2.269585	0	0	NONE	NO_ALARM	1.099350	0	0	NONE	NO_ALARM	1.140679	0	0	NONE	NO_ALARM
2019-07-23 09:17:09.826737610	3.374888	0	0	NONE	NO_ALARM	2.269585	0	0	NONE	NO_ALARM	413.702867	0	0	NONE	NO_ALARM	2.269585	0	0	NONE	NO_ALARM	1.099350	0	0	NONE	NO_ALARM	1.140679	0	0	NONE	NO_ALARM
2019-07-23 09:17:09.826750318	3.374888	0	0	NONE	NO_ALARM	2.269585	0	0	NONE	NO_ALARM	413.702867	0	0	NONE	NO_ALARM	2.269585	0	0	NONE	NO_ALARM	0.932202	0	0	NONE	NO_ALARM	1.140679	0	0	NONE	NO_ALARM
2019-07-23 09:17:09.826919392	2.253313	0	0	NONE	NO_ALARM	2.269585	0	0	NONE	NO_ALARM	413.702867	0	0	NONE	NO_ALARM	2.269585	0	0	NONE	NO_ALARM	0.932202	0	0	NONE	NO_ALARM	1.140679	0	0	NONE	NO_ALARM
2019-07-23 09:17:10.127470571	2.253313	0	0	NONE	NO_ALARM	2.269585	0	0	NONE	NO_ALARM	476.357316	0	0	NONE	NO_ALARM	2.269585	0	0	NONE	NO_ALARM	0.932202	0	0	NONE	NO_ALARM	1.140679	0	0	NONE	NO_ALARM
2019-07-23 09:17:10.127538338	1.956939	0	0	NONE	NO_ALARM	2.269585	0	0	NONE	NO_ALARM	476.357316	0	0	NONE	NO_ALARM	2.269585	0	0	NONE	NO_ALARM	0.932202	0	0	NONE	NO_ALARM	1.140679	0	0	NONE	NO_ALARM
2019-07-23 09:17:10.127545069	1.956939	0	0	NONE	NO_ALARM	2.269585	0	0	NONE	NO_ALARM	476.357316	0	0	NONE	NO_ALARM	2.269585	0	0	NONE	NO_ALARM	1.007173	0	0	NONE	NO_ALARM	1.140679	0	0	NONE	NO_ALARM
2019-07-23 09:17:10.127593451	2.114322	0	0	NONE	NO_ALARM	2.269585	0	0	NONE	NO_ALARM	476.357316	0	0	NONE	NO_ALARM	2.269585	0	0	NONE	NO_ALARM	1.007173	0	0	NONE	NO_ALARM	1.140679	0	0	NONE	NO_ALARM
2019-07-23 09:17:10.127612849	2.114322	0	0	NONE	NO_ALARM	2.269585	0	0	NONE	NO_ALARM	476.357316	0	0	NONE	NO_ALARM	2.269585	0	0	NONE	NO_ALARM	1.007173	0	0	NONE	NO_ALARM	1.111412	0	0	NONE	NO_ALARM
2019-07-23 09:17:10.428460444	2.114322	0	0	NONE	NO_ALARM	2.269585	0	0	NONE	NO_ALARM	639.238492	0	0	NONE	NO_ALARM	2.269585	0	0	NONE	NO_ALARM	1.007173	0	0	NONE	NO_ALARM	1.111412	0	0	NONE	NO_ALARM
2019-07-23 09:17:10.428514531	1.575582	0	0	NONE	NO_ALARM	2.269585	0	0	NONE	NO_ALARM	639.238492	0	0	NONE	NO_ALARM	2.269585	0	0	NONE	NO_ALARM	1.007173	0	0	NONE	NO_ALARM	1.111412	0	0	NONE	NO_ALARM
2019-07-23 09:17:10.428520704	1.575582	0	0	NONE	NO_ALARM	2.269585	0	0	NONE	NO_ALARM	639.238492	0	0	NONE	NO_ALARM	2.269585	0	0	NONE	NO_ALARM	1.376381	0	0	NONE	NO_ALARM	1.111412	0	0	NONE	NO_ALARM
2019-07-23 09:17:10.428597864	2.153158	0	0	NONE	NO_ALARM	2.269585	0	0	NONE	NO_ALARM	639.238492	0	0	NONE	NO_ALARM	2.269585	0	0	NONE	NO_ALARM	1.376381	0	0	NONE	NO_ALARM	1.111412	0	0	NONE	NO_ALARM
2019-07-23 09:17:10.428636310	2.153158	0	0	NONE	NO_ALARM	2.217893	0	0	NONE	NO_ALARM	639.238492	0	0	NONE	NO_ALARM	2.217893	0	0	NONE	NO_ALARM	1.376381	0	0	NONE	NO_ALARM	1.111412	0	0	NONE	NO_ALARM
2019-07-23 09:17:10.729579043	2.153158	0	0	NONE	NO_ALARM	2.217893	0	0	NONE	NO_ALARM	611.430810	0	0	NONE	NO_ALARM	2.217893	0	0	NONE	NO_ALARM	1.376381	0	0	NONE	NO_ALARM	1.111412	0	0	NONE	NO_ALARM
2019-07-23 09:17:10.729592155	2.153158	0	0	NONE	NO_ALARM	2.217893	0	0	NONE	NO_ALARM	611.430810	0	0	NONE	NO_ALARM	2.217893	0	0	NONE	NO_ALARM	1.164279	0	0	NONE	NO_ALARM	1.111412	0	0	NONE	NO_ALARM
2019-07-23 09:17:10.729650310	1.904188	0	0	NONE	NO_ALARM	2.217893	0	0	NONE	NO_ALARM	611.430810	0	0	NONE	NO_ALARM	2.217893	0	0	NONE	NO_ALARM	1.164279	0	0	NONE	NO_ALARM	1.111412	0	0	NONE	NO_ALARM
2019-07-23 09:17:11.030210663	1.904188	0	0	NONE	NO_ALARM	2.217893	0	0	NONE	NO_ALARM	567.448181	0	0	NONE	NO_ALARM	2.217893	0	0	NONE	NO_ALARM	1.164279	0	0	NONE	NO_ALARM	1.111412	0	0	NONE	NO_ALARM
2019-07-23 09:17:11.030292774	2.051780	0	0	NONE	NO_ALARM	2.217893	0	0	NONE	NO_ALARM	567.448181	0	0	NONE	NO_ALARM	2.217893	0	0	NONE	NO_ALARM	1.164279	0	0	NONE	NO_ALARM	1.111412	0	0	NONE	NO_ALARM
2019-07-23 09:17:11.030755450	2.051780	0	0	NONE	NO_ALARM	2.217893	0	0	NONE	NO_ALARM	567.448181	0	0	NONE	NO_ALARM	2.217893	0	0	NONE	NO_ALARM	1.039540	0	0	NONE	NO_ALARM	1.111412	0	0	NONE	NO_ALARM
2019-07-23 09:17:11.030876404	1.831956	0	0	NONE	NO_ALARM	2.217893	0	0	NONE	NO_ALARM	567.448181	0	0	NONE	NO_ALARM	2.217893	0	0	NONE	NO_ALARM	1.039540	0	0	NONE	NO_ALARM	1.111412	0	0	NONE	NO_ALARM
2019-07-23 09:17:11.331032553	1.831956	0	0	NONE	NO_ALARM	2.217893	0	0	NONE	NO_ALARM	332.059326	0	0	NONE	NO_ALARM	2.217893	0	0	NONE	NO_ALARM	1.039540	0	0	NONE	NO_ALARM	1.111412	0	0	NONE	NO_ALARM
2019-07-23 09:17:11.331130482	3.130585	0	0	NONE	NO_ALARM	2.217893	0	0	NONE	NO_ALARM	332.059326	0	0	NONE	NO_ALARM	2.217893	0	0	NONE	NO_ALARM	1.039540	0	0	NONE	NO_ALARM	1.111412	0	0	NONE	NO_ALARM
2019-07-23 09:17:11.331137379	3.130585	0	0	NONE	NO_ALARM	2.217893	0	0	NONE	NO_ALARM	332.059326	0	0	NONE	NO_ALARM	2.217893	0	0	NONE	NO_ALARM	0.910941	0	0	NONE	NO_ALARM	1.111412	0	0	NONE	NO_ALARM
2019-07-23 09:17:11.331178160	2.743309	0	0	NONE	NO_ALARM	2.217893	0	0	NONE	NO_ALARM	332.059326	0	0	NONE	NO_ALARM	2.217893	0	0	NONE	NO_ALARM	0.910941	0	0	NONE	NO_ALARM	1.111412	0	0	NONE	NO_ALARM
2019-07-23 09:17:11.331455256	2.743309	0	0	NONE	NO_ALARM	2.230457	0	0	NONE	NO_ALARM	332.059326	0	0	NONE	NO_ALARM	2.230457	0	0	NONE	NO_ALARM	0.910941	0	0	NONE	NO_ALARM	1.111412	0	0	NONE	NO_ALARM
2019-07-23 09:17:11.631870903	2.743309	0	0	NONE	NO_ALARM	2.230457	0	0	NONE	NO_ALARM	522.310199	0	0	NONE	NO_ALARM	2.230457	0	0	NONE	NO_ALARM	0.910941	0	0	NONE	NO_ALARM	1.111412	0	0	NONE	NO_ALARM
2019-07-23 09:17:11.631982683	1.744062	0	0	NONE	NO_ALARM	2.230457	0	0	NONE	NO_ALARM	522.310199	0	0	NONE	NO_ALARM	2.230457	0	0	NONE	NO_ALARM	0.910941	0	0	NONE	NO_ALARM	1.111412	0	0	NONE	NO_ALARM
2019-07-23 09:17:11.631987282	1.744062	0	0	NONE	NO_ALARM	2.230457	0	0	NONE	NO_ALARM	522.310199	0	0	NONE	NO_ALARM	2.230457	0	0	NONE	NO_ALARM	0.923986	0	0	NONE	NO_ALARM	1.111412	0	0	NONE	NO_ALARM
2019-07-23 09:17:11.632098146	1.769038	0	0	NONE	NO_ALARM	2.230457	0	0	NONE	NO_ALARM	522.310199	0	0	NONE	NO_ALARM	2.230457	0	0	NONE	NO_ALARM	0.923986	0	0	NONE	NO_ALARM	1.111412	0	0	NONE	NO_ALARM